16
Lattice="6.3131004558874695 0.0 0.0 -0.7113285938671207 4.893947038906246 0.0 -0.9678109260884609 -1.4085158427130533 4.618323386102655" Properties=species:S:1:pos:R:3:forces:R:3 config_type=Training_set energy=-10.193510783860802 pbc="T T T"
C	1.3319575047945518	1.5687985188775346	1.1893205757143215	-0.04667192262707509	-0.11263302113213423	-0.05994626331465675
C	4.129719082389107	4.011650215043009	1.187297858328255	-0.03461037058586123	-0.11169611169237077	-0.05529282644575477
C	0.49888834435618823	1.6177711330439906	2.341131233759942	0.03566195115903152	0.10861670325108456	0.05793540471740373
C	0.9828967109378497	2.322408471737916	0.03216650944283784	0.03733111034754534	0.10404605585518036	0.05727180338259871
C	0.847915678780474	0.8645835266041081	3.4985207786784294	-0.04576740906804988	-0.11496449610463014	-0.06080321149323293
C	4.81177067289205	2.4859903742006444	3.4943686525085926	0.037168102503195716	0.11811743805298888	0.05689487988131078
C	-0.1836417791613106	3.1426797149321044	0.03403708110791729	-0.03597562555983048	-0.1148688511234029	-0.06246825691911332
C	5.296020199911126	3.1909307417164525	1.1855011499385093	0.03412777480692709	0.11088827155523115	0.05651229995640188
C	3.2972389342232784	4.061268659386102	2.3394778327505446	0.03742726954910174	0.10852285804100947	0.0566321132931005
C	3.7806380866109466	4.764681256591585	0.02990831340976689	0.04364830709150477	0.1189013669448217	0.060126240429869277
C	3.645518797553587	3.3068114884445405	3.496137583256332	-0.03283836733151168	-0.10828091737613094	-0.04997090314892057
C	-0.6678464831671501	2.4378207864121775	2.3428307204026666	-0.03301345935359701	-0.10804669001619005	-0.05444796244491429
C	3.3280108797754107	0.694592564558563	0.03340892761255649	-0.04156751452948346	-0.10768467890444831	-0.05441582367434061
C	2.012062766426944	0.04104272868381562	3.4952878399349694	0.04491663153342385	0.10819427125066433	0.05494289951174871
C	2.4961399458035745	0.7452930743197952	1.1861015257918643	0.04262937950923732	0.10982563524498352	0.056472190770725954
C	2.844352258959005	-0.009211444875185408	2.3428818565163594	-0.04246585744455852	-0.10893783384665663	-0.05944284161239088
